Comment Angles given clockwise positive from sx
TITLE="Experimental Results FF1"   
VARIABLES ="Location" "Results_Angle" "Surface_strain" "STD"   
ZONE T="500s sx to facture 112.5 Compression test"   
1 0 1215.721321 6.327055597
2 22.5 1267.196509 3.729699858
3 45 1341.343585 7.014036565
4 67.5 1356.182642 4.023188572
5 90 1328.043491 5.6288737
6 112.5 1205.400755 5.144718919
7 135 1284.301132 12.24290685
8 157.5 1305.364151 11.00203642
9 180 1322.242642 11.47997472
10 202.5 1294.507453 11.84838909
11 225 1282.311981 3.419768419
12 247.5 1165.10217 5.88955783
13 270 1157.273208 2.04389057
14 292.5 1145.619528 8.580283532
15 315 1183.94783 7.640653426
TITLE="Experimental Results FF1"   
VARIABLES ="Location" "Results_Angle" "Surface_strain" "STD"   
ZONE T="Eliptical_650s sx to fracture 348.5 double bag loading"   
1 11.25 1163.779608 1.286887658
2 33.75 1104.655556 4.80774401
3 56.25 1133.392157 2.601129996
4 78.75 1073.821765 1.473272148
5 101.25 1017.122941 3.45544457
6 123.75 958.8571961 2.012212742
7 146.25 983.1028431 2.058999489
8 168.75 1025.028039 2.894356591
9 191.25 1056.001765 1.51712848
11 236.25 1061.294118 0.822438269
12 258.75 1062.403333 0.971342713
13 281.25 1089.623529 1.74294558
14 303.75 1114.340392 1.637838772
15 326.25 1120.392353 4.222317652
16 348.75 1079.870784 2.44519516
TITLE="Experimental Results FF1"   
VARIABLES ="Location" "Results_Angle" "Surface_strain" "STD"   
ZONE T="Eliptical_750s sx to fracture 78.75 double bag loading"   
1 11.25 1193.300392 1.236876648
2 33.75 1186.038627 1.619981506
3 56.25 1161.117647 1.619658715
4 78.75 1001.233941 1.967398083
5 101.25 1083.232157 2.190924292
6 123.75 1093.402745 3.620267437
7 146.25 1162.957451 2.136985581
8 168.75 1177.163725 1.535308387
9 191.25 1107.728039 1.924382519
10 213.75 1030.150588 1.088250728
11 236.25 988.845451 0.814042734
12 258.75 958.4924706 1.301519133
13 281.25 967.9106275 2.132608215
15 326.25 1056.764902 1.259551305
16 348.75 1145.331765 1.498626979
TITLE="Experimental Results FF1"   
VARIABLES ="Location" "Results_Angle" "Surface_strain" "STD"   
ZONE T="Eliptical_850s sx to fracture 56.25 double bag loading"   
1 11.25 1227.962857 0.829440431
2 33.75 1216.13381 0.554486034
3 56.25 1040.686667 0.448490059
4 78.75 1089.94381 0.554603247
5 101.25 1083.908571 0.809674538
6 123.75 1140.856667 0.981383377
7 146.25 1163.60619 0.383816052
8 168.75 1114.426667 1.410018912
9 191.25 1068.39381 0.965828536
10 213.75 1037.438095 0.253369672
11 236.25 986.895381 0.247275449
12 258.75 978.6418095 0.560342718
14 303.75 1039.773333 1.062898553
15 326.25 1128.525714 0.324831825
16 348.75 1181.980476 1.030225588
TITLE="Experimental Results FF1"   
VARIABLES ="Location" "Results_Angle" "Surface_strain" "STD"   
ZONE T="Eliptical_925s sx to fracture 33.75 double bag loading"   
1 11.25 1236.38 2.262077216
2 33.75 1091.10129 1.220062135
3 56.25 1110.880645 2.306697402
4 78.75 1106.746452 3.715654764
5 101.25 1088.179677 4.836704445
6 123.75 1122.666452 1.421695111
7 146.25 1106.884516 2.709473305
8 168.75 1060.216129 0.765470128
9 191.25 1068.768387 0.597366983
10 213.75 1032.097742 2.207840136
11 236.25 1009.133871 1.231115151
13 281.25 1009.55871 3.799342699
14 303.75 1092.722258 2.480217342
15 326.25 1164.831613 6.176698199
16 348.75 1221.946774 2.144690167
TITLE="Experimental Results FF1"   
VARIABLES ="Location" "Results_Angle" "Surface_strain" "STD"   
ZONE T="Eliptical_975s sx to fracture 11.25 double bag loading"   
1 11.25 1114.546809 1.707143694
2 33.75 1156.916383 1.036365777
3 56.25 1130.393617 1.924415694
4 78.75 1091.291064 1.526099367
5 101.25 1088.956383 2.832279329
6 123.75 1041.969787 2.069652869
7 146.25 1023.627234 0.622829107
8 168.75 1051.561702 0.889873755
9 191.25 1053.622128 1.897625445
10 213.75 1055.251702 1.278392875
12 258.75 1024.035745 0.921760472
13 281.25 1061.799778 2.496494823
14 303.75 1114.105333 1.472928797
15 326.25 1175.117556 0.83973031
16 348.75 1219.145778 0.716529758
TITLE="Experimental Results FF1"   
VARIABLES ="Location" "Results_Angle" "Surface_strain" "STD"   
ZONE T="Eliptical_1050s sx to fracture 0 *single bag loading"   
1 0 1104.857324 0.482511163
2 22.5 1189.149296 1.420616892
3 45 1181.069296 1.167769943
4 67.5 1134.132113 1.364480975
5 90 1096.515634 2.121814407
6 112.5 1029.369155 1.051155482
7 135 1004.925352 0.314564692
8 157.5 1030.219155 0.206382076
9 180 1045.185634 0.886470904
10 202.5 1075.26338 0.535619651
12 247.5 1055.095634 0.814519547
13 270 1086.435352 1.998868845
14 292.5 1112.230141 1.138720451
15 315 1155.28662 0.97828413
16 337.5 1195.517324 0.803796274
